<?xml version="1.0" encoding="UTF-8"?>

<!-- generated on 2025-08-29 10:47:59 by Eclipse SUMO sumo Version 1.23.1
<sumoConfiguration xmlns:xsi="http://www.w3.org/2001/XMLSchema-instance" xsi:noNamespaceSchemaLocation="http://sumo.dlr.de/xsd/sumoConfiguration.xsd">

    <input>
        <net-file value="c:\Users\alfon\PycharmProjects\my_grid_simulation\src\optimization\temp_files\temp_3812.net.xml"/>
        <route-files value="c:\Users\alfon\PycharmProjects\my_grid_simulation\sumo_data\grid_3x3.rou.xml"/>
    </input>

    <output>
        <tripinfo-output value="c:\Users\alfon\PycharmProjects\my_grid_simulation\src\optimization\temp_files\temp_3812_tripinfo.xml"/>
    </output>

    <time>
        <end value="1200"/>
    </time>

    <processing>
        <time-to-teleport value="120"/>
    </processing>

    <report>
        <no-warnings value="true"/>
        <no-step-log value="true"/>
    </report>

</sumoConfiguration>
-->

<tripinfos xmlns:xsi="http://www.w3.org/2001/XMLSchema-instance" xsi:noNamespaceSchemaLocation="http://sumo.dlr.de/xsd/tripinfo_file.xsd">
    <tripinfo id="trip_3" depart="1.00" departLane="A1A0_0" departPos="5.10" departSpeed="0.00" departDelay="0.00" arrival="50.00" arrivalLane="B0B1_0" arrivalPos="185.60" arrivalSpeed="14.10" duration="49.00" routeLength="581.64" waitingTime="0.00" waitingCount="0" stopTime="0.00" timeLoss="8.30" rerouteNo="0" devices="tripinfo_trip_3" vType="DEFAULT_VEHTYPE" speedFactor="1.08" vaporized=""/>
    <tripinfo id="trip_4" depart="1.00" departLane="A0A1_0" departPos="5.10" departSpeed="0.00" departDelay="0.00" arrival="72.00" arrivalLane="B1C1_0" arrivalPos="185.60" arrivalSpeed="13.12" duration="71.00" routeLength="579.13" waitingTime="18.00" waitingCount="1" stopTime="0.00" timeLoss="29.89" rerouteNo="0" devices="tripinfo_trip_4" vType="DEFAULT_VEHTYPE" speedFactor="1.03" vaporized=""/>
    <tripinfo id="trip_0" depart="1.00" departLane="C1B1_0" departPos="5.10" departSpeed="0.00" departDelay="0.00" arrival="76.00" arrivalLane="B1B0_0" arrivalPos="185.60" arrivalSpeed="14.34" duration="75.00" routeLength="380.30" waitingTime="36.00" waitingCount="2" stopTime="0.00" timeLoss="47.85" rerouteNo="0" devices="tripinfo_trip_0" vType="DEFAULT_VEHTYPE" speedFactor="1.06" vaporized=""/>
    <tripinfo id="trip_2" depart="1.00" departLane="A2A1_0" departPos="5.10" departSpeed="0.00" departDelay="0.00" arrival="76.00" arrivalLane="B1A1_0" arrivalPos="185.60" arrivalSpeed="13.99" duration="75.00" routeLength="574.57" waitingTime="17.00" waitingCount="1" stopTime="0.00" timeLoss="32.42" rerouteNo="0" devices="tripinfo_trip_2" vType="DEFAULT_VEHTYPE" speedFactor="1.01" vaporized=""/>
    <tripinfo id="trip_5" depart="39.00" departLane="B2A2_0" departPos="5.10" departSpeed="0.00" departDelay="0.60" arrival="137.00" arrivalLane="B1C1_0" arrivalPos="185.60" arrivalSpeed="10.56" duration="98.00" routeLength="781.64" waitingTime="15.00" waitingCount="1" stopTime="0.00" timeLoss="27.72" rerouteNo="0" devices="tripinfo_trip_5" vType="DEFAULT_VEHTYPE" speedFactor="0.83" vaporized=""/>
    <tripinfo id="trip_6" depart="85.00" departLane="A1A2_0" departPos="5.10" departSpeed="0.00" departDelay="0.52" arrival="150.00" arrivalLane="B1B0_0" arrivalPos="185.60" arrivalSpeed="14.27" duration="65.00" routeLength="771.31" waitingTime="0.00" waitingCount="0" stopTime="0.00" timeLoss="10.85" rerouteNo="0" devices="tripinfo_trip_6" vType="DEFAULT_VEHTYPE" speedFactor="1.05" vaporized=""/>
</tripinfos>
