<?xml version="1.0" encoding="UTF-8"?>

<!-- generated on 2025-08-30 17:44:31 by Eclipse SUMO sumo Version 1.23.1
<sumoConfiguration xmlns:xsi="http://www.w3.org/2001/XMLSchema-instance" xsi:noNamespaceSchemaLocation="http://sumo.dlr.de/xsd/sumoConfiguration.xsd">

    <input>
        <net-file value="c:\Users\alfon\PycharmProjects\my_grid_simulation\src\optimization\temp_files\temp_3469.net.xml"/>
        <route-files value="c:\Users\alfon\PycharmProjects\my_grid_simulation\sumo_data\grid_4x4.rou.xml"/>
    </input>

    <output>
        <tripinfo-output value="c:\Users\alfon\PycharmProjects\my_grid_simulation\src\optimization\temp_files\temp_3469_tripinfo.xml"/>
    </output>

    <time>
        <end value="1200"/>
    </time>

    <processing>
        <time-to-teleport value="120"/>
    </processing>

    <report>
        <no-warnings value="true"/>
        <no-step-log value="true"/>
    </report>

</sumoConfiguration>
-->

<tripinfos xmlns:xsi="http://www.w3.org/2001/XMLSchema-instance" xsi:noNamespaceSchemaLocation="http://sumo.dlr.de/xsd/tripinfo_file.xsd">
    <tripinfo id="trip_3" depart="105.00" departLane="A0A1_0" departPos="5.10" departSpeed="0.00" departDelay="0.31" arrival="183.00" arrivalLane="A2A3_0" arrivalPos="189.60" arrivalSpeed="11.74" duration="78.00" routeLength="588.50" waitingTime="21.00" waitingCount="1" stopTime="0.00" timeLoss="32.33" rerouteNo="0" devices="tripinfo_trip_3" vType="DEFAULT_VEHTYPE" speedFactor="0.94" vaporized=""/>
    <tripinfo id="trip_1" depart="72.00" departLane="B0A0_0" departPos="5.10" departSpeed="0.00" departDelay="0.49" arrival="194.00" arrivalLane="A3B3_0" arrivalPos="189.60" arrivalSpeed="14.63" duration="122.00" routeLength="972.86" waitingTime="38.00" waitingCount="1" stopTime="0.00" timeLoss="55.69" rerouteNo="0" devices="tripinfo_trip_1" vType="DEFAULT_VEHTYPE" speedFactor="1.06" vaporized=""/>
    <tripinfo id="trip_8" depart="126.00" departLane="A0A1_0" departPos="5.10" departSpeed="0.00" departDelay="0.29" arrival="209.00" arrivalLane="B2B3_0" arrivalPos="185.60" arrivalSpeed="12.04" duration="83.00" routeLength="778.93" waitingTime="3.00" waitingCount="1" stopTime="0.00" timeLoss="17.97" rerouteNo="0" devices="tripinfo_trip_8" vType="DEFAULT_VEHTYPE" speedFactor="0.89" vaporized=""/>
    <tripinfo id="trip_6" depart="117.00" departLane="D0C0_0" departPos="5.10" departSpeed="0.00" departDelay="0.26" arrival="251.00" arrivalLane="C3B3_0" arrivalPos="185.60" arrivalSpeed="13.63" duration="134.00" routeLength="978.92" waitingTime="40.00" waitingCount="3" stopTime="0.00" timeLoss="65.09" rerouteNo="0" devices="tripinfo_trip_6" vType="DEFAULT_VEHTYPE" speedFactor="1.05" vaporized=""/>
    <tripinfo id="trip_5" depart="106.00" departLane="D0D1_0" departPos="5.10" departSpeed="0.00" departDelay="0.21" arrival="265.00" arrivalLane="B3A3_0" arrivalPos="189.60" arrivalSpeed="13.81" duration="159.00" routeLength="1189.84" waitingTime="52.00" waitingCount="2" stopTime="0.00" timeLoss="73.16" rerouteNo="0" devices="tripinfo_trip_5" vType="DEFAULT_VEHTYPE" speedFactor="1.01" vaporized=""/>
    <tripinfo id="trip_0" depart="110.00" departLane="A0A1_0" departPos="5.10" departSpeed="0.00" departDelay="0.62" arrival="265.00" arrivalLane="B3C3_0" arrivalPos="185.60" arrivalSpeed="14.07" duration="155.00" routeLength="980.68" waitingTime="64.00" waitingCount="2" stopTime="0.00" timeLoss="89.01" rerouteNo="0" devices="tripinfo_trip_0" vType="DEFAULT_VEHTYPE" speedFactor="1.08" vaporized=""/>
    <tripinfo id="trip_9" depart="116.00" departLane="C0B0_0" departPos="5.10" departSpeed="0.00" departDelay="0.98" arrival="336.00" arrivalLane="B3C3_0" arrivalPos="185.60" arrivalSpeed="10.99" duration="220.00" routeLength="969.76" waitingTime="110.00" waitingCount="3" stopTime="0.00" timeLoss="133.93" rerouteNo="0" devices="tripinfo_trip_9" vType="DEFAULT_VEHTYPE" speedFactor="0.83" vaporized=""/>
    <tripinfo id="trip_2" depart="113.00" departLane="D0C0_0" departPos="5.10" departSpeed="0.00" departDelay="0.04" arrival="341.00" arrivalLane="A3B3_0" arrivalPos="189.60" arrivalSpeed="13.04" duration="228.00" routeLength="1376.86" waitingTime="100.00" waitingCount="3" stopTime="0.00" timeLoss="130.37" rerouteNo="0" devices="tripinfo_trip_2" vType="DEFAULT_VEHTYPE" speedFactor="1.03" vaporized=""/>
    <tripinfo id="trip_11" depart="537.00" departLane="A0B0_0" departPos="5.10" departSpeed="0.00" departDelay="0.10" arrival="651.00" arrivalLane="C2C3_0" arrivalPos="185.60" arrivalSpeed="12.19" duration="114.00" routeLength="984.30" waitingTime="14.00" waitingCount="2" stopTime="0.00" timeLoss="37.01" rerouteNo="0" devices="tripinfo_trip_11" vType="DEFAULT_VEHTYPE" speedFactor="0.94" vaporized=""/>
    <tripinfo id="trip_27" depart="555.00" departLane="B0B1_0" departPos="5.10" departSpeed="0.00" departDelay="1.30" arrival="659.00" arrivalLane="D3C3_0" arrivalPos="189.60" arrivalSpeed="14.47" duration="104.00" routeLength="1176.26" waitingTime="5.00" waitingCount="1" stopTime="0.00" timeLoss="21.34" rerouteNo="0" devices="tripinfo_trip_27" vType="DEFAULT_VEHTYPE" speedFactor="1.05" vaporized=""/>
    <tripinfo id="trip_19" depart="555.00" departLane="C0B0_0" departPos="5.10" departSpeed="0.00" departDelay="0.31" arrival="697.00" arrivalLane="B2B3_0" arrivalPos="185.60" arrivalSpeed="14.46" duration="142.00" routeLength="775.13" waitingTime="70.00" waitingCount="1" stopTime="0.00" timeLoss="90.45" rerouteNo="0" devices="tripinfo_trip_19" vType="DEFAULT_VEHTYPE" speedFactor="1.12" vaporized=""/>
    <tripinfo id="trip_25" depart="594.00" departLane="A0A1_0" departPos="5.10" departSpeed="0.00" departDelay="0.28" arrival="704.00" arrivalLane="B3A3_0" arrivalPos="189.60" arrivalSpeed="15.86" duration="110.00" routeLength="982.72" waitingTime="32.00" waitingCount="1" stopTime="0.00" timeLoss="46.76" rerouteNo="0" devices="tripinfo_trip_25" vType="DEFAULT_VEHTYPE" speedFactor="1.16" vaporized=""/>
    <tripinfo id="trip_14" depart="540.00" departLane="C0C1_0" departPos="5.10" departSpeed="0.00" departDelay="0.02" arrival="706.00" arrivalLane="A3B3_0" arrivalPos="189.60" arrivalSpeed="11.72" duration="166.00" routeLength="1171.11" waitingTime="45.00" waitingCount="1" stopTime="0.00" timeLoss="65.01" rerouteNo="0" devices="tripinfo_trip_14" vType="DEFAULT_VEHTYPE" speedFactor="0.86" vaporized=""/>
    <tripinfo id="trip_23" depart="544.00" departLane="C0C1_0" departPos="5.10" departSpeed="0.00" departDelay="0.31" arrival="706.00" arrivalLane="B3C3_0" arrivalPos="185.60" arrivalSpeed="14.87" duration="162.00" routeLength="969.56" waitingTime="66.00" waitingCount="2" stopTime="0.00" timeLoss="96.03" rerouteNo="0" devices="tripinfo_trip_23" vType="DEFAULT_VEHTYPE" speedFactor="1.09" vaporized=""/>
    <tripinfo id="trip_20" depart="564.00" departLane="B0B1_0" departPos="5.10" departSpeed="0.00" departDelay="0.46" arrival="710.00" arrivalLane="B3C3_0" arrivalPos="185.60" arrivalSpeed="13.65" duration="146.00" routeLength="775.13" waitingTime="74.00" waitingCount="1" stopTime="0.00" timeLoss="88.88" rerouteNo="0" devices="tripinfo_trip_20" vType="DEFAULT_VEHTYPE" speedFactor="0.99" vaporized=""/>
    <tripinfo id="trip_16" depart="547.00" departLane="A0B0_0" departPos="5.10" departSpeed="0.00" departDelay="0.54" arrival="713.00" arrivalLane="A2A3_0" arrivalPos="189.60" arrivalSpeed="13.85" duration="166.00" routeLength="982.73" waitingTime="71.00" waitingCount="1" stopTime="0.00" timeLoss="94.38" rerouteNo="0" devices="tripinfo_trip_16" vType="DEFAULT_VEHTYPE" speedFactor="1.03" vaporized=""/>
    <tripinfo id="trip_17" depart="592.00" departLane="B0C0_0" departPos="5.10" departSpeed="0.00" departDelay="0.52" arrival="717.00" arrivalLane="A3B3_0" arrivalPos="189.60" arrivalSpeed="13.00" duration="125.00" routeLength="1370.91" waitingTime="0.00" waitingCount="0" stopTime="0.00" timeLoss="16.53" rerouteNo="0" devices="tripinfo_trip_17" vType="DEFAULT_VEHTYPE" speedFactor="0.94" vaporized=""/>
    <tripinfo id="trip_13" depart="608.00" departLane="C0D0_0" departPos="5.10" departSpeed="0.00" departDelay="2.52" arrival="719.00" arrivalLane="D2D3_0" arrivalPos="189.60" arrivalSpeed="7.77" duration="111.00" routeLength="785.84" waitingTime="35.00" waitingCount="1" stopTime="0.00" timeLoss="54.48" rerouteNo="0" devices="tripinfo_trip_13" vType="DEFAULT_VEHTYPE" speedFactor="1.01" vaporized=""/>
    <tripinfo id="trip_22" depart="589.00" departLane="D0C0_0" departPos="5.10" departSpeed="0.00" departDelay="0.04" arrival="721.00" arrivalLane="B3C3_0" arrivalPos="185.60" arrivalSpeed="11.82" duration="132.00" routeLength="1173.76" waitingTime="16.00" waitingCount="1" stopTime="0.00" timeLoss="33.23" rerouteNo="0" devices="tripinfo_trip_22" vType="DEFAULT_VEHTYPE" speedFactor="0.88" vaporized=""/>
    <tripinfo id="trip_28" depart="613.00" departLane="C0B0_0" departPos="5.10" departSpeed="0.00" departDelay="0.87" arrival="724.00" arrivalLane="B3A3_0" arrivalPos="189.60" arrivalSpeed="10.97" duration="111.00" routeLength="978.92" waitingTime="11.00" waitingCount="1" stopTime="0.00" timeLoss="27.82" rerouteNo="0" devices="tripinfo_trip_28" vType="DEFAULT_VEHTYPE" speedFactor="0.87" vaporized=""/>
    <tripinfo id="trip_29" depart="592.00" departLane="C0C1_0" departPos="5.10" departSpeed="0.00" departDelay="1.08" arrival="735.00" arrivalLane="C3D3_0" arrivalPos="189.60" arrivalSpeed="12.89" duration="143.00" routeLength="779.13" waitingTime="62.00" waitingCount="1" stopTime="0.00" timeLoss="82.64" rerouteNo="0" devices="tripinfo_trip_29" vType="DEFAULT_VEHTYPE" speedFactor="0.94" vaporized=""/>
    <tripinfo id="trip_21" depart="596.00" departLane="A0B0_0" departPos="5.10" departSpeed="0.00" departDelay="0.63" arrival="808.00" arrivalLane="D3C3_0" arrivalPos="189.60" arrivalSpeed="4.47" duration="212.00" routeLength="1387.18" waitingTime="86.00" waitingCount="2" stopTime="0.00" timeLoss="112.85" rerouteNo="0" devices="tripinfo_trip_21" vType="DEFAULT_VEHTYPE" speedFactor="1.02" vaporized=""/>
    <tripinfo id="trip_12" depart="610.00" departLane="D0D1_0" departPos="5.10" departSpeed="0.00" departDelay="0.64" arrival="831.00" arrivalLane="B3C3_0" arrivalPos="185.60" arrivalSpeed="12.05" duration="221.00" routeLength="1173.56" waitingTime="105.00" waitingCount="2" stopTime="0.00" timeLoss="123.51" rerouteNo="0" devices="tripinfo_trip_12" vType="DEFAULT_VEHTYPE" speedFactor="0.89" vaporized=""/>
    <tripinfo id="trip_24" depart="623.00" departLane="D0D1_0" departPos="5.10" departSpeed="0.00" departDelay="0.01" arrival="887.00" arrivalLane="B3A3_0" arrivalPos="189.60" arrivalSpeed="12.16" duration="264.00" routeLength="1189.84" waitingTime="142.00" waitingCount="3" stopTime="0.00" timeLoss="168.73" rerouteNo="0" devices="tripinfo_trip_24" vType="DEFAULT_VEHTYPE" speedFactor="0.92" vaporized=""/>
    <tripinfo id="trip_26" depart="610.00" departLane="C0B0_0" departPos="5.10" departSpeed="0.00" departDelay="3.11" arrival="896.00" arrivalLane="C3B3_0" arrivalPos="185.60" arrivalSpeed="12.96" duration="286.00" routeLength="1169.35" waitingTime="168.00" waitingCount="3" stopTime="0.00" timeLoss="196.70" rerouteNo="0" devices="tripinfo_trip_26" vType="DEFAULT_VEHTYPE" speedFactor="0.97" vaporized=""/>
    <tripinfo id="trip_18" depart="611.00" departLane="A0B0_0" departPos="5.10" departSpeed="0.00" departDelay="0.89" arrival="901.00" arrivalLane="C3B3_0" arrivalPos="185.60" arrivalSpeed="11.35" duration="290.00" routeLength="1184.09" waitingTime="154.00" waitingCount="4" stopTime="0.00" timeLoss="184.83" rerouteNo="0" devices="tripinfo_trip_18" vType="DEFAULT_VEHTYPE" speedFactor="0.83" vaporized=""/>
    <tripinfo id="trip_15" depart="581.00" departLane="C0B0_0" departPos="5.10" departSpeed="0.00" departDelay="0.00" arrival="908.00" arrivalLane="D3C3_0" arrivalPos="189.60" arrivalSpeed="11.59" duration="327.00" routeLength="1370.89" waitingTime="183.00" waitingCount="4" stopTime="0.00" timeLoss="217.90" rerouteNo="0" devices="tripinfo_trip_15" vType="DEFAULT_VEHTYPE" speedFactor="0.93" vaporized=""/>
</tripinfos>
