<?xml version="1.0" encoding="UTF-8"?>

<!-- generated on 2025-08-29 17:20:06 by Eclipse SUMO sumo Version 1.23.1
<sumoConfiguration xmlns:xsi="http://www.w3.org/2001/XMLSchema-instance" xsi:noNamespaceSchemaLocation="http://sumo.dlr.de/xsd/sumoConfiguration.xsd">

    <input>
        <net-file value="c:\Users\alfon\PycharmProjects\my_grid_simulation\src\optimization\temp_files\temp_8493.net.xml"/>
        <route-files value="c:\Users\alfon\PycharmProjects\my_grid_simulation\sumo_data\grid_3x3.rou.xml"/>
    </input>

    <output>
        <tripinfo-output value="c:\Users\alfon\PycharmProjects\my_grid_simulation\src\optimization\temp_files\temp_8493_tripinfo.xml"/>
    </output>

    <time>
        <end value="1200"/>
    </time>

    <processing>
        <time-to-teleport value="120"/>
    </processing>

    <report>
        <no-warnings value="true"/>
        <no-step-log value="true"/>
    </report>

</sumoConfiguration>
-->

<tripinfos xmlns:xsi="http://www.w3.org/2001/XMLSchema-instance" xsi:noNamespaceSchemaLocation="http://sumo.dlr.de/xsd/tripinfo_file.xsd">
    <tripinfo id="trip_0" depart="1.00" departLane="A2A1_0" departPos="5.10" departSpeed="0.00" departDelay="0.00" arrival="34.00" arrivalLane="A1B1_0" arrivalPos="185.60" arrivalSpeed="13.87" duration="33.00" routeLength="384.30" waitingTime="0.00" waitingCount="0" stopTime="0.00" timeLoss="5.70" rerouteNo="0" devices="tripinfo_trip_0" vType="DEFAULT_VEHTYPE" speedFactor="1.06" vaporized=""/>
    <tripinfo id="trip_3" depart="1.00" departLane="A2B2_0" departPos="5.10" departSpeed="0.00" departDelay="0.00" arrival="64.00" arrivalLane="C1B1_0" arrivalPos="185.60" arrivalSpeed="14.07" duration="63.00" routeLength="775.31" waitingTime="0.00" waitingCount="0" stopTime="0.00" timeLoss="10.35" rerouteNo="0" devices="tripinfo_trip_3" vType="DEFAULT_VEHTYPE" speedFactor="1.08" vaporized=""/>
    <tripinfo id="trip_4" depart="1.00" departLane="C1C2_0" departPos="5.10" departSpeed="0.00" departDelay="0.00" arrival="88.00" arrivalLane="C1B1_0" arrivalPos="185.60" arrivalSpeed="14.31" duration="87.00" routeLength="962.92" waitingTime="0.00" waitingCount="0" stopTime="0.00" timeLoss="17.12" rerouteNo="0" devices="tripinfo_trip_4" vType="DEFAULT_VEHTYPE" speedFactor="1.03" vaporized=""/>
    <tripinfo id="trip_1" depart="1.00" departLane="B0A0_0" departPos="5.10" departSpeed="0.00" departDelay="0.00" arrival="93.00" arrivalLane="B0B1_0" arrivalPos="185.60" arrivalSpeed="12.70" duration="92.00" routeLength="956.21" waitingTime="0.00" waitingCount="0" stopTime="0.00" timeLoss="15.07" rerouteNo="0" devices="tripinfo_trip_1" vType="DEFAULT_VEHTYPE" speedFactor="0.94" vaporized=""/>
    <tripinfo id="trip_2" depart="1.00" departLane="C0B0_0" departPos="5.10" departSpeed="0.00" departDelay="0.00" arrival="108.00" arrivalLane="C1B1_0" arrivalPos="185.60" arrivalSpeed="13.31" duration="107.00" routeLength="764.03" waitingTime="35.00" waitingCount="1" stopTime="0.00" timeLoss="50.01" rerouteNo="0" devices="tripinfo_trip_2" vType="DEFAULT_VEHTYPE" speedFactor="1.01" vaporized=""/>
    <tripinfo id="trip_5" depart="39.00" departLane="C0B0_0" departPos="5.10" departSpeed="0.00" departDelay="0.60" arrival="149.00" arrivalLane="A1B1_0" arrivalPos="185.60" arrivalSpeed="10.85" duration="110.00" routeLength="775.31" waitingTime="24.00" waitingCount="1" stopTime="0.00" timeLoss="40.49" rerouteNo="0" devices="tripinfo_trip_5" vType="DEFAULT_VEHTYPE" speedFactor="0.83" vaporized=""/>
    <tripinfo id="trip_6" depart="85.00" departLane="C0C1_0" departPos="5.10" departSpeed="0.00" departDelay="0.52" arrival="171.00" arrivalLane="C1B1_0" arrivalPos="185.60" arrivalSpeed="14.25" duration="86.00" routeLength="384.30" waitingTime="50.00" waitingCount="1" stopTime="0.00" timeLoss="58.16" rerouteNo="0" devices="tripinfo_trip_6" vType="DEFAULT_VEHTYPE" speedFactor="1.05" vaporized=""/>
    <tripinfo id="trip_8" depart="177.00" departLane="A1A2_0" departPos="5.10" departSpeed="0.00" departDelay="0.36" arrival="231.00" arrivalLane="B2B1_0" arrivalPos="185.60" arrivalSpeed="12.85" duration="54.00" routeLength="571.31" waitingTime="0.00" waitingCount="0" stopTime="0.00" timeLoss="9.22" rerouteNo="0" devices="tripinfo_trip_8" vType="DEFAULT_VEHTYPE" speedFactor="0.94" vaporized=""/>
    <tripinfo id="trip_7" depart="131.00" departLane="A0A1_0" departPos="5.10" departSpeed="0.00" departDelay="0.44" arrival="243.00" arrivalLane="B0B1_0" arrivalPos="185.60" arrivalSpeed="12.28" duration="112.00" routeLength="764.03" waitingTime="31.00" waitingCount="1" stopTime="0.00" timeLoss="46.75" rerouteNo="0" devices="tripinfo_trip_7" vType="DEFAULT_VEHTYPE" speedFactor="0.89" vaporized=""/>
    <tripinfo id="trip_9" depart="223.00" departLane="A1A2_0" departPos="5.10" departSpeed="0.00" departDelay="0.28" arrival="281.00" arrivalLane="B2B1_0" arrivalPos="185.60" arrivalSpeed="11.72" duration="58.00" routeLength="571.31" waitingTime="0.00" waitingCount="0" stopTime="0.00" timeLoss="9.31" rerouteNo="0" devices="tripinfo_trip_9" vType="DEFAULT_VEHTYPE" speedFactor="0.86" vaporized=""/>
    <tripinfo id="trip_10" depart="269.00" departLane="A0B0_0" departPos="5.10" departSpeed="0.00" departDelay="0.20" arrival="354.00" arrivalLane="B2B1_0" arrivalPos="185.60" arrivalSpeed="14.12" duration="85.00" routeLength="774.57" waitingTime="13.00" waitingCount="1" stopTime="0.00" timeLoss="32.38" rerouteNo="0" devices="tripinfo_trip_10" vType="DEFAULT_VEHTYPE" speedFactor="1.09" vaporized=""/>
    <tripinfo id="trip_11" depart="315.00" departLane="A0A1_0" departPos="5.10" departSpeed="0.00" departDelay="0.12" arrival="406.00" arrivalLane="B0B1_0" arrivalPos="185.60" arrivalSpeed="13.03" duration="91.00" routeLength="764.03" waitingTime="14.00" waitingCount="2" stopTime="0.00" timeLoss="35.10" rerouteNo="0" devices="tripinfo_trip_11" vType="DEFAULT_VEHTYPE" speedFactor="1.03" vaporized=""/>
    <tripinfo id="trip_13" depart="408.00" departLane="A1A0_0" departPos="5.10" departSpeed="0.00" departDelay="0.96" arrival="487.00" arrivalLane="C1B1_0" arrivalPos="185.60" arrivalSpeed="15.38" duration="79.00" routeLength="982.98" waitingTime="0.00" waitingCount="0" stopTime="0.00" timeLoss="13.56" rerouteNo="0" devices="tripinfo_trip_13" vType="DEFAULT_VEHTYPE" speedFactor="1.12" vaporized=""/>
    <tripinfo id="trip_12" depart="361.00" departLane="C1C2_0" departPos="5.10" departSpeed="0.00" departDelay="0.04" arrival="512.00" arrivalLane="A1B1_0" arrivalPos="185.60" arrivalSpeed="13.79" duration="151.00" routeLength="982.98" waitingTime="65.00" waitingCount="1" stopTime="0.00" timeLoss="81.16" rerouteNo="0" devices="tripinfo_trip_12" vType="DEFAULT_VEHTYPE" speedFactor="1.05" vaporized=""/>
    <tripinfo id="trip_14" depart="458.00" departLane="C0C1_0" departPos="5.10" departSpeed="0.00" departDelay="4.88" arrival="529.00" arrivalLane="B0B1_0" arrivalPos="185.60" arrivalSpeed="13.00" duration="71.00" routeLength="765.58" waitingTime="0.00" waitingCount="0" stopTime="0.00" timeLoss="12.98" rerouteNo="0" devices="tripinfo_trip_14" vType="DEFAULT_VEHTYPE" speedFactor="0.99" vaporized=""/>
    <tripinfo id="trip_15" depart="500.00" departLane="B2C2_0" departPos="5.10" departSpeed="0.00" departDelay="0.80" arrival="592.00" arrivalLane="B0B1_0" arrivalPos="185.60" arrivalSpeed="12.05" duration="92.00" routeLength="967.49" waitingTime="0.00" waitingCount="0" stopTime="0.00" timeLoss="15.50" rerouteNo="0" devices="tripinfo_trip_15" vType="DEFAULT_VEHTYPE" speedFactor="0.93" vaporized=""/>
    <tripinfo id="trip_17" depart="592.00" departLane="B2C2_0" departPos="5.10" departSpeed="0.00" departDelay="0.64" arrival="647.00" arrivalLane="C1B1_0" arrivalPos="185.60" arrivalSpeed="11.83" duration="55.00" routeLength="571.31" waitingTime="0.00" waitingCount="0" stopTime="0.00" timeLoss="9.88" rerouteNo="0" devices="tripinfo_trip_17" vType="DEFAULT_VEHTYPE" speedFactor="0.94" vaporized=""/>
    <tripinfo id="trip_16" depart="546.00" departLane="A1A2_0" departPos="5.10" departSpeed="0.00" departDelay="0.72" arrival="680.00" arrivalLane="B0B1_0" arrivalPos="185.60" arrivalSpeed="11.51" duration="134.00" routeLength="961.58" waitingTime="33.00" waitingCount="1" stopTime="0.00" timeLoss="52.56" rerouteNo="0" devices="tripinfo_trip_16" vType="DEFAULT_VEHTYPE" speedFactor="0.88" vaporized=""/>
    <tripinfo id="trip_18" depart="638.00" departLane="B2C2_0" departPos="5.10" departSpeed="0.00" departDelay="0.56" arrival="729.00" arrivalLane="B0B1_0" arrivalPos="185.60" arrivalSpeed="11.85" duration="91.00" routeLength="967.49" waitingTime="0.00" waitingCount="0" stopTime="0.00" timeLoss="15.02" rerouteNo="0" devices="tripinfo_trip_18" vType="DEFAULT_VEHTYPE" speedFactor="0.94" vaporized=""/>
    <tripinfo id="trip_19" depart="684.00" departLane="A1A2_0" departPos="5.10" departSpeed="0.00" departDelay="0.48" arrival="782.00" arrivalLane="C1B1_0" arrivalPos="185.60" arrivalSpeed="14.87" duration="98.00" routeLength="967.49" waitingTime="18.00" waitingCount="1" stopTime="0.00" timeLoss="37.37" rerouteNo="0" devices="tripinfo_trip_19" vType="DEFAULT_VEHTYPE" speedFactor="1.16" vaporized=""/>
    <tripinfo id="trip_20" depart="730.00" departLane="A2B2_0" departPos="5.10" departSpeed="0.00" departDelay="0.40" arrival="836.00" arrivalLane="A1B1_0" arrivalPos="185.60" arrivalSpeed="13.25" duration="106.00" routeLength="764.03" waitingTime="32.00" waitingCount="1" stopTime="0.00" timeLoss="48.66" rerouteNo="0" devices="tripinfo_trip_20" vType="DEFAULT_VEHTYPE" speedFactor="1.02" vaporized=""/>
    <tripinfo id="trip_22" depart="822.00" departLane="A1A0_0" departPos="5.10" departSpeed="0.00" departDelay="0.24" arrival="888.00" arrivalLane="B0B1_0" arrivalPos="185.60" arrivalSpeed="12.31" duration="66.00" routeLength="581.64" waitingTime="9.00" waitingCount="1" stopTime="0.00" timeLoss="21.57" rerouteNo="0" devices="tripinfo_trip_22" vType="DEFAULT_VEHTYPE" speedFactor="0.97" vaporized=""/>
    <tripinfo id="trip_21" depart="776.00" departLane="B0C0_0" departPos="5.10" departSpeed="0.00" departDelay="0.32" arrival="938.00" arrivalLane="B2B1_0" arrivalPos="185.60" arrivalSpeed="13.15" duration="162.00" routeLength="982.98" waitingTime="74.00" waitingCount="1" stopTime="0.00" timeLoss="89.06" rerouteNo="0" devices="tripinfo_trip_21" vType="DEFAULT_VEHTYPE" speedFactor="1.01" vaporized=""/>
    <tripinfo id="trip_23" depart="868.00" departLane="A0B0_0" departPos="5.10" departSpeed="0.00" departDelay="0.16" arrival="947.00" arrivalLane="A1B1_0" arrivalPos="185.60" arrivalSpeed="11.31" duration="79.00" routeLength="765.58" waitingTime="0.00" waitingCount="0" stopTime="0.00" timeLoss="13.40" rerouteNo="0" devices="tripinfo_trip_23" vType="DEFAULT_VEHTYPE" speedFactor="0.89" vaporized=""/>
    <tripinfo id="trip_24" depart="914.00" departLane="A2B2_0" departPos="5.10" departSpeed="0.00" departDelay="0.08" arrival="955.00" arrivalLane="B2B1_0" arrivalPos="185.60" arrivalSpeed="10.57" duration="41.00" routeLength="379.13" waitingTime="0.00" waitingCount="0" stopTime="0.00" timeLoss="6.34" rerouteNo="0" devices="tripinfo_trip_24" vType="DEFAULT_VEHTYPE" speedFactor="0.83" vaporized=""/>
</tripinfos>
